 Gaussian 09, Revision A.02,
 Gaussian 09:  EM64L-G09RevA.02 11-Jun-2009

 ----------------------------------------------------------------------
 # opt=tight freq cam-b3lyp/gen scrf=(cpcm,solvent=AceticAcid) scf=qc g
 eom=connectivity int=ultrafine
 ----------------------------------------------------------------------

 ----------------------------------------------
 NA CAM-B3LYP def2-TZVPD - solvent CPCM acetone
 ----------------------------------------------
 Symbolic Z-matrix:
 Charge =  0 Multiplicity = 1

 SCF Done:  E(RCAM-B3LYP) =  -492.089455124     a.u. after    8 cycles
 SCF Done:  E(RCAM-B3LYP) =  -492.095567574     a.u. after    5 cycles
 SCF Done:  E(RCAM-B3LYP) =  -492.099462806     a.u. after   19 cycles
 SCF Done:  E(RCAM-B3LYP) =  -492.096533877     a.u. after    6 cycles
 SCF Done:  E(RCAM-B3LYP) =  -492.099513014     a.u. after    5 cycles
 SCF Done:  E(RCAM-B3LYP) =  -492.099636252     a.u. after    4 cycles
 SCF Done:  E(RCAM-B3LYP) =  -492.099674747     a.u. after   17 cycles
 SCF Done:  E(RCAM-B3LYP) =  -492.099689829     a.u. after    3 cycles
 SCF Done:  E(RCAM-B3LYP) =  -492.099697218     a.u. after    3 cycles
 SCF Done:  E(RCAM-B3LYP) =  -492.099704233     a.u. after    3 cycles
 SCF Done:  E(RCAM-B3LYP) =  -492.099705959     a.u. after   17 cycles
 SCF Done:  E(RCAM-B3LYP) =  -492.099706022     a.u. after    2 cycles
 SCF Done:  E(RCAM-B3LYP) =  -492.099706029     a.u. after    2 cycles
 SCF Done:  E(RCAM-B3LYP) =  -492.099706031     a.u. after   17 cycles
 SCF Done:  E(RCAM-B3LYP) =  -492.099706031     a.u. after    2 cycles
 Optimization completed.
    -- Stationary point found.
 Normal termination of Gaussian 09 at Tue Mar 28 15:04:20 2023.

 ----------------------------------------------------------------------
 #N Geom=AllCheck Guess=TCheck SCRF=Check GenChk RCAM-B3LYP/ChkBas Freq
 ----------------------------------------------------------------------

 NA CAM-B3LYP def2-TZVPD - solvent CPCM acetone
 ----------------------------------------------
 Redundant internal coordinates taken from checkpoint file:
 /home/matheusmaximo/Gaussian/solvent/aceticacid/aceticacid.chk
 Charge =  0 Multiplicity = 1

                         Standard orientation:
 ---------------------------------------------------------------------
 Center     Atomic      Atomic             Coordinates (Angstroms)
 Number     Number       Type             X           Y           Z
 ---------------------------------------------------------------------
      1          6           0       -0.018976   -1.207567   -0.002142
      2          6           0       -0.704623   -0.000001   -0.001420
      3          6           0       -0.018978    1.207565   -0.002149
      4          6           0        1.353188    1.208019   -0.003500
      5          6           0        2.068872    0.000002   -0.003538
      6          6           0        1.353189   -1.208018   -0.003491
      7          1           0       -0.570139   -2.135427   -0.000545
      8          1           0       -0.570142    2.135425   -0.000558
      9          1           0        1.892296    2.146065   -0.005189
     10          1           0        1.892301   -2.146062   -0.005172
     11          7           0       -2.145962    0.000000    0.001889
     12          8           0       -2.728707    1.072759    0.003295
     13          8           0       -2.728709   -1.072759    0.003273
     14          7           0        3.426312    0.000000   -0.032862
     15          1           0        3.928267    0.853757    0.136584
     16          1           0        3.928263   -0.853759    0.136586
 ---------------------------------------------------------------------

 SCF Done:  E(RCAM-B3LYP) =  -492.099706031     a.u. after    1 cycles

 The electronic state is 1-A.
 Alpha  occ. eigenvalues --  -19.23327 -19.23326 -14.63497 -14.41460 -10.31927
 Alpha  occ. eigenvalues --  -10.29799 -10.27445 -10.27443 -10.26028 -10.26028
 Alpha  occ. eigenvalues --   -1.32363  -1.14172  -1.03258  -0.96661  -0.87919
 Alpha  occ. eigenvalues --   -0.85613  -0.77193  -0.71899  -0.67665  -0.64353
 Alpha  occ. eigenvalues --   -0.62097  -0.61622  -0.61086  -0.58803  -0.53065
 Alpha  occ. eigenvalues --   -0.52413  -0.51251  -0.49063  -0.48384  -0.42883
 Alpha  occ. eigenvalues --   -0.40879  -0.39112  -0.38622  -0.36962  -0.33737
 Alpha  occ. eigenvalues --   -0.28385
 Alpha virt. eigenvalues --   -0.04781   0.01536   0.03035   0.04406   0.05112
 Alpha virt. eigenvalues --    0.05457   0.06740   0.07170   0.07216   0.09408
 Alpha virt. eigenvalues --    0.10482   0.10690   0.11415   0.12669   0.14321

 Mulliken atomic charges:
              1
     1  C   -0.400713
     2  C   -0.119882
     3  C   -0.400703
     4  C   -0.573206
     5  C    0.875058
     6  C   -0.573199
     7  H    0.440720
     8  H    0.440720
     9  H    0.325442
    10  H    0.325440
    11  N    0.914397
    12  O   -0.624967
    13  O   -0.624967
    14  N   -0.448556
    15  H    0.222208
    16  H    0.222207
 Sum of Mulliken atomic charges =   0.00000

 Dipole moment (field-independent basis, Debye):
    X=              9.4048    Y=              0.0000    Z=              0.5745  Tot=              9.4223
 Quadrupole moment (field-independent basis, Debye-Ang):
   XX=            -57.1222   YY=            -52.7369   ZZ=            -60.2764
   XY=              0.0000   XZ=              2.4488   YZ=             -0.0001

  Exact polarizability: 214.491   0.000 132.386  -0.963   0.000  70.172
 Approx polarizability: 182.428   0.000 139.527  -0.895   0.000  72.107

                     1                      2                      3
                     A                      A                      A
 Frequencies --    64.3479               112.6087               228.3517
 Red. masses --     7.6644                 5.7854                 6.4792
 Frc consts  --     0.0187                 0.0432                 0.1991
 IR Inten    --     0.0515                 0.1300                 0.3905

                     4                      5                      6
                     A                      A                      A
 Frequencies --   263.5819               292.7717               371.5012
 Red. masses --     1.2007                 6.6321                 8.8509
 Frc consts  --     0.0492                 0.3349                 0.7197
 IR Inten    --   506.9478                 3.9933                 1.3006

                     7                      8                      9
                     A                      A                      A
 Frequencies --   395.1494               427.9731               454.3889
 Red. masses --     2.8170                 2.0422                 1.2676
 Frc consts  --     0.2592                 0.2204                 0.1542
 IR Inten    --     2.0821                 1.9248                 5.2373

                    10                     11                     12
                     A                      A                      A
 Frequencies --   511.8016               545.8385               654.8985
 Red. masses --     2.5686                 6.8069                 6.7549
 Frc consts  --     0.3964                 1.1949                 1.7069
 IR Inten    --    21.3494                 5.3668                33.9325

                    13                     14                     15
                     A                      A                      A
 Frequencies --   655.0456               725.2180               800.1422
 Red. masses --     6.8871                 3.1370                 5.8877
 Frc consts  --     1.7411                 0.9721                 2.2209
 IR Inten    --     2.2208                15.2337                43.2607

                    16                     17                     18
                     A                      A                      A
 Frequencies --   838.2169               845.7226               880.2129
 Red. masses --     1.2599                 5.5696                 2.0552
 Frc consts  --     0.5216                 2.3471                 0.9382
 IR Inten    --     0.0707                 0.7638                55.4760

                    19                     20                     21
                     A                      A                      A
 Frequencies --   894.7663              1010.3509              1016.3067
 Red. masses --     8.9953                 1.3750                 1.3458
 Frc consts  --     4.2431                 0.8270                 0.8190
 IR Inten    --    32.3531                 0.5569                 0.0001

                    22                     23                     24
                     A                      A                      A
 Frequencies --  1031.7309              1066.2973              1140.8259
 Red. masses --     2.6781                 1.4081                 2.1111
 Frc consts  --     1.6796                 0.9433                 1.6188
 IR Inten    --     3.4096                 1.5032               506.6463

                    25                     26                     27
                     A                      A                      A
 Frequencies --  1156.5245              1219.7403              1347.2565
 Red. masses --     1.1601                 1.5639                 1.3742
 Frc consts  --     0.9143                 1.3708                 1.4696
 IR Inten    --    20.2690                17.2750                 0.7894

                    28                     29                     30
                     A                      A                      A
 Frequencies --  1351.8892              1378.3460              1394.7863
 Red. masses --     3.6486                 6.3507                 6.5663
 Frc consts  --     3.9288                 7.1087                 7.5263
 IR Inten    --  1037.6888                 5.0372               781.7067

                    31                     32                     33
                     A                      A                      A
 Frequencies --  1501.1978              1558.8810              1570.6585
 Red. masses --     3.6206                 2.6661                10.8744
 Frc consts  --     4.8073                 3.8173                15.8058
 IR Inten    --    34.5916                86.5611               459.4196

                    34                     35                     36
                     A                      A                      A
 Frequencies --  1656.9983              1660.2008              1670.8340
 Red. masses --     1.2679                 7.4756                 4.7742
 Frc consts  --     2.0511                12.1400                 7.8527
 IR Inten    --    55.5788               117.8812               637.3267

                    37                     38                     39
                     A                      A                      A
 Frequencies --  3205.5914              3206.0868              3247.2063
 Red. masses --     1.0910                 1.0910                 1.0931
 Frc consts  --     6.6050                 6.6073                 6.7907
 IR Inten    --     5.4300                12.4330                 0.5464

                    40                     41                     42
                     A                      A                      A
 Frequencies --  3247.4300              3612.7111              3722.2348
 Red. masses --     1.0938                 1.0460                 1.1042
 Frc consts  --     6.7964                 8.0436                 9.0137
 IR Inten    --     4.7298               194.6751                69.7469

 - Thermochemistry -
 -------------------
 Temperature   298.150 Kelvin.  Pressure   1.00000 Atm.
 Atom     1 has atomic number  6 and mass  12.00000

 Molecular mass:   138.04293 amu.
 Principal axes and moments of inertia in atomic units:
                           1         2         3
     Eigenvalues --   452.918602166.183382618.73493
           X            1.00000   0.00000   0.00176
           Y            0.00000   1.00000   0.00000
           Z           -0.00176   0.00000   1.00000
 This molecule is an asymmetric top.
 Rotational symmetry number  1.
 Warning -- assumption of classical behavior for rotation
           may cause significant error
 Rotational temperatures (Kelvin)      0.19123     0.03998     0.03307
 Rotational constants (GHZ):           3.98469     0.83314     0.68917
 Zero-point vibrational energy     316631.3 (Joules/Mol)
                                   75.67670 (Kcal/Mol)
 Warning -- explicit consideration of  11 degrees of freedom as
           vibrations may cause significant error
 Vibrational temperatures:     92.58   162.02   328.55   379.24   421.23
          (Kelvin)            534.51   568.53   615.76   653.76   736.37
                              785.34   942.25   942.46  1043.43  1151.22
                             1206.01  1216.80  1266.43  1287.37  1453.67
                             1462.24  1484.43  1534.16  1641.39  1663.98
                             1754.93  1938.40  1945.06  1983.13  2006.78
                             2159.89  2242.88  2259.82  2384.05  2388.66
                             2403.95  4612.13  4612.84  4672.00  4672.32
                             5197.88  5355.46

 Zero-point correction=                           0.120599 (Hartree/Particle)
 Thermal correction to Energy=                    0.128899
 Thermal correction to Enthalpy=                  0.129844
 Thermal correction to Gibbs Free Energy=         0.087137
 Sum of electronic and zero-point Energies=           -491.979108
 Sum of electronic and thermal Energies=              -491.970807
 Sum of electronic and thermal Enthalpies=            -491.969862
 Sum of electronic and thermal Free Energies=         -492.012569

                     E (Thermal)             CV                S
                      KCal/Mol        Cal/Mol-Kelvin    Cal/Mol-Kelvin
 Total                   80.886             31.558             89.884
 Electronic               0.000              0.000              0.000
 Translational            0.889              2.981             40.679
 Rotational               0.889              2.981             29.331
 Vibrational             79.108             25.597             19.874
 Vibration     1          0.597              1.971              4.319
 Vibration     2          0.607              1.939              3.223
 Vibration     3          0.651              1.798              1.892
 Vibration     4          0.670              1.740              1.638
 Vibration     5          0.688              1.687              1.458
 Vibration     6          0.743              1.531              1.074
 Vibration     7          0.762              1.481              0.981
 Vibration     8          0.789              1.409              0.865
 Vibration     9          0.813              1.351              0.783
 Vibration    10          0.867              1.224              0.629
 Vibration    11          0.901              1.149              0.553

 Optimization completed.
    -- Stationary point found.
 Normal termination of Gaussian 09 at Tue Mar 28 18:18:16 2023.
