 Gaussian 09, Revision A.02,
 Gaussian 09:  EM64L-G09RevA.02 11-Jun-2009

 ----------------------------------------------------------------------
 # opt=tight freq cam-b3lyp/gen scrf=(cpcm,solvent=Acetone) scf=qc geom
 =connectivity int=ultrafine
 ----------------------------------------------------------------------

 ----------------------------------------------
 NA CAM-B3LYP def2-TZVPD - solvent CPCM acetone
 ----------------------------------------------
 Symbolic Z-matrix:
 Charge =  0 Multiplicity = 1

 SCF Done:  E(RCAM-B3LYP) =  -492.091219713     a.u. after    8 cycles
 SCF Done:  E(RCAM-B3LYP) =  -492.097369088     a.u. after    5 cycles
 SCF Done:  E(RCAM-B3LYP) =  -492.101292042     a.u. after   18 cycles
 SCF Done:  E(RCAM-B3LYP) =  -492.098151233     a.u. after    6 cycles
 SCF Done:  E(RCAM-B3LYP) =  -492.101347049     a.u. after    5 cycles
 SCF Done:  E(RCAM-B3LYP) =  -492.101479847     a.u. after    4 cycles
 SCF Done:  E(RCAM-B3LYP) =  -492.101526228     a.u. after    3 cycles
 SCF Done:  E(RCAM-B3LYP) =  -492.101547030     a.u. after   18 cycles
 SCF Done:  E(RCAM-B3LYP) =  -492.101559218     a.u. after    3 cycles
 SCF Done:  E(RCAM-B3LYP) =  -492.101570261     a.u. after    3 cycles
 SCF Done:  E(RCAM-B3LYP) =  -492.101572626     a.u. after   17 cycles
 SCF Done:  E(RCAM-B3LYP) =  -492.101572720     a.u. after    2 cycles
 SCF Done:  E(RCAM-B3LYP) =  -492.101572728     a.u. after    2 cycles
 SCF Done:  E(RCAM-B3LYP) =  -492.101572734     a.u. after   17 cycles
 SCF Done:  E(RCAM-B3LYP) =  -492.101572734     a.u. after   17 cycles
 SCF Done:  E(RCAM-B3LYP) =  -492.101572733     a.u. after   17 cycles
 Optimization completed.
    -- Stationary point found.
 Normal termination of Gaussian 09 at Sun Mar 26 19:20:23 2023.

 ----------------------------------------------------------------------
 #N Geom=AllCheck Guess=TCheck SCRF=Check GenChk RCAM-B3LYP/ChkBas Freq
 ----------------------------------------------------------------------

 NA CAM-B3LYP def2-TZVPD - solvent CPCM acetone
 ----------------------------------------------
 Redundant internal coordinates taken from checkpoint file:
 /home/matheusmaximo/Gaussian/solvent/acetone/acetone.chk
 Charge =  0 Multiplicity = 1

                         Standard orientation:
 ---------------------------------------------------------------------
 Center     Atomic      Atomic             Coordinates (Angstroms)
 Number     Number       Type             X           Y           Z
 ---------------------------------------------------------------------
      1          6           0       -0.018517   -1.208159   -0.002065
      2          6           0       -0.705434    0.000000   -0.001392
      3          6           0       -0.018517    1.208160   -0.002066
      4          6           0        1.352758    1.208968   -0.003181
      5          6           0        2.069438    0.000000   -0.002974
      6          6           0        1.352758   -1.208968   -0.003179
      7          1           0       -0.568515   -2.136684   -0.000643
      8          1           0       -0.568514    2.136685   -0.000646
      9          1           0        1.892023    2.146813   -0.004459
     10          1           0        1.892023   -2.146813   -0.004455
     11          7           0       -2.143326    0.000000    0.001682
     12          8           0       -2.728988    1.072630    0.002988
     13          8           0       -2.728986   -1.072630    0.002984
     14          7           0        3.423445    0.000000   -0.027457
     15          1           0        3.930514    0.855415    0.116006
     16          1           0        3.930513   -0.855416    0.116003
 ---------------------------------------------------------------------

 SCF Done:  E(RCAM-B3LYP) =  -492.101572730     a.u. after    1 cycles

 The electronic state is 1-A.
 Alpha  occ. eigenvalues --  -19.23458 -19.23456 -14.63624 -14.41325 -10.31896
 Alpha  occ. eigenvalues --  -10.29773 -10.27417 -10.27415 -10.25918 -10.25917
 Alpha  occ. eigenvalues --   -1.32442  -1.14219  -1.03174  -0.96643  -0.87957
 Alpha  occ. eigenvalues --   -0.85553  -0.77186  -0.71812  -0.67678  -0.64396
 Alpha  occ. eigenvalues --   -0.62209  -0.61602  -0.61097  -0.58895  -0.52956
 Alpha  occ. eigenvalues --   -0.52315  -0.51175  -0.48957  -0.48378  -0.42772
 Alpha  occ. eigenvalues --   -0.40809  -0.39336  -0.38800  -0.37099  -0.33703
 Alpha  occ. eigenvalues --   -0.28217
 Alpha virt. eigenvalues --   -0.04959   0.01638   0.03139   0.04430   0.05185
 Alpha virt. eigenvalues --    0.05505   0.06723   0.07183   0.07261   0.09189
 Alpha virt. eigenvalues --    0.10506   0.10743   0.11418   0.12542   0.14494

 Mulliken atomic charges:
              1
     1  C   -0.404343
     2  C   -0.091265
     3  C   -0.404342
     4  C   -0.591793
     5  C    0.873203
     6  C   -0.591791
     7  H    0.441611
     8  H    0.441610
     9  H    0.337916
    10  H    0.337916
    11  N    0.913175
    12  O   -0.631659
    13  O   -0.631659
    14  N   -0.443024
    15  H    0.222223
    16  H    0.222222
 Sum of Mulliken atomic charges =   0.00000

 Dipole moment (field-independent basis, Debye):
    X=              9.9680    Y=              0.0000    Z=              0.5011  Tot=              9.9806
 Quadrupole moment (field-independent basis, Debye-Ang):
   XX=            -56.7233   YY=            -52.6827   ZZ=            -60.3076
   XY=              0.0000   XZ=              2.1169   YZ=              0.0000

  Exact polarizability: 230.698   0.000 138.089  -0.989   0.000  72.997
 Approx polarizability: 186.728   0.000 138.838  -0.834   0.000  72.115

                     1                      2                      3
                     A                      A                      A
 Frequencies --    63.9157               111.8314               220.6375
 Red. masses --     7.6407                 5.8300                 1.2178
 Frc consts  --     0.0184                 0.0430                 0.0349
 IR Inten    --     0.0400                 0.0987               506.1318

                     4                      5                      6
                     A                      A                      A
 Frequencies --   228.1640               290.5265               371.4484
 Red. masses --     6.4747                 5.9250                 9.0902
 Frc consts  --     0.1986                 0.2947                 0.7390
 IR Inten    --     0.3874                 2.1396                 0.9865

                     7                      8                      9
                     A                      A                      A
 Frequencies --   394.5958               428.8266               466.3248
 Red. masses --     2.8822                 2.3239                 1.1604
 Frc consts  --     0.2644                 0.2518                 0.1487
 IR Inten    --     1.9334                 0.9434                 4.6903

                    10                     11                     12
                     A                      A                      A
 Frequencies --   510.5336               546.0419               654.4331
 Red. masses --     2.5435                 6.8193                 6.8838
 Frc consts  --     0.3906                 1.1980                 1.7370
 IR Inten    --    24.5087                 6.1090                 2.6045

                    13                     14                     15
                     A                      A                      A
 Frequencies --   654.8697               725.9081               800.5981
 Red. masses --     6.7917                 3.1274                 5.9989
 Frc consts  --     1.7161                 0.9709                 2.2654
 IR Inten    --    42.4882                16.1574                45.6157

                    16                     17                     18
                     A                      A                      A
 Frequencies --   837.1384               845.8436               879.7058
 Red. masses --     1.2610                 5.5892                 2.0629
 Frc consts  --     0.5207                 2.3560                 0.9406
 IR Inten    --     0.0690                 0.5789                58.9174

                    19                     20                     21
                     A                      A                      A
 Frequencies --   893.8791              1010.8092              1016.4568
 Red. masses --     8.9745                 1.3728                 1.3457
 Frc consts  --     4.2249                 0.8264                 0.8192
 IR Inten    --    29.0913                 0.4906                 0.0000

                    22                     23                     24
                     A                      A                      A
 Frequencies --  1030.1521              1062.7164              1138.0839
 Red. masses --     2.6831                 1.4133                 2.0855
 Frc consts  --     1.6776                 0.9404                 1.5915
 IR Inten    --     5.4485                 1.2513               684.7215

                    25                     26                     27
                     A                      A                      A
 Frequencies --  1157.0661              1220.3600              1346.9430
 Red. masses --     1.1569                 1.6060                 1.3774
 Frc consts  --     0.9126                 1.4092                 1.4723
 IR Inten    --    22.5186                20.1053                 1.3599

                    28                     29                     30
                     A                      A                      A
 Frequencies --  1348.9106              1380.5221              1390.0467
 Red. masses --     4.2069                 6.3345                 4.9243
 Frc consts  --     4.5101                 7.1130                 5.6060
 IR Inten    --  1652.6524                 6.9686               554.0791

                    31                     32                     33
                     A                      A                      A
 Frequencies --  1501.4222              1558.4258              1560.2084
 Red. masses --     3.7714                 2.6654                10.1901
 Frc consts  --     5.0091                 3.8141                14.6148
 IR Inten    --    60.7159                91.6512               494.5670

                    34                     35                     36
                     A                      A                      A
 Frequencies --  1655.7329              1656.0353              1668.2281
 Red. masses --     7.3844                 1.2491                 5.1891
 Frc consts  --    11.9275                 2.0183                 8.5085
 IR Inten    --   119.8182                86.5227               695.5286

                    37                     38                     39
                     A                      A                      A
 Frequencies --  3206.9815              3207.4459              3247.2141
 Red. masses --     1.0910                 1.0911                 1.0931
 Frc consts  --     6.6111                 6.6134                 6.7910
 IR Inten    --     5.1307                13.0011                 0.4141

                    40                     41                     42
                     A                      A                      A
 Frequencies --  3247.4617              3613.2739              3724.3285
 Red. masses --     1.0939                 1.0459                 1.1047
 Frc consts  --     6.7968                 8.0451                 9.0281
 IR Inten    --     4.8266               234.0050                78.9256

 - Thermochemistry -
 -------------------
 Temperature   298.150 Kelvin.  Pressure   1.00000 Atm.
 Atom     1 has atomic number  6 and mass  12.00000

 Molecular mass:   138.04293 amu.
 Principal axes and moments of inertia in atomic units:
                           1         2         3
     Eigenvalues --   453.236812164.906582617.88044
           X            1.00000   0.00000   0.00149
           Y            0.00000   1.00000   0.00000
           Z           -0.00149   0.00000   1.00000
 This molecule is an asymmetric top.
 Rotational symmetry number  1.
 Warning -- assumption of classical behavior for rotation
           may cause significant error
 Rotational temperatures (Kelvin)      0.19110     0.04001     0.03309
 Rotational constants (GHZ):           3.98189     0.83363     0.68939
 Zero-point vibrational energy     316257.0 (Joules/Mol)
                                   75.58724 (Kcal/Mol)
 Warning -- explicit consideration of  11 degrees of freedom as
           vibrations may cause significant error
 Vibrational temperatures:     91.96   160.90   317.45   328.28   418.00
          (Kelvin)            534.43   567.73   616.99   670.94   734.54
                              785.63   941.58   942.21  1044.42  1151.88
                             1204.45  1216.98  1265.70  1286.09  1454.33
                             1462.45  1482.16  1529.01  1637.45  1664.76
                             1755.82  1937.95  1940.78  1986.26  1999.96
                             2160.21  2242.22  2244.79  2382.23  2382.66
                             2400.21  4614.13  4614.79  4672.01  4672.37
                             5198.69  5358.47

 Zero-point correction=                           0.120456 (Hartree/Particle)
 Thermal correction to Energy=                    0.128816
 Thermal correction to Enthalpy=                  0.129760
 Thermal correction to Gibbs Free Energy=         0.086897
 Sum of electronic and zero-point Energies=           -491.981117
 Sum of electronic and thermal Energies=              -491.972757
 Sum of electronic and thermal Enthalpies=            -491.971812
 Sum of electronic and thermal Free Energies=         -492.014675

                     E (Thermal)             CV                S
                      KCal/Mol        Cal/Mol-Kelvin    Cal/Mol-Kelvin
 Total                   80.833             31.623             90.213
 Electronic               0.000              0.000              0.000
 Translational            0.889              2.981             40.679
 Rotational               0.889              2.981             29.331
 Vibrational             79.056             25.662             20.203
 Vibration     1          0.597              1.972              4.332
 Vibration     2          0.607              1.940              3.237
 Vibration     3          0.647              1.810              1.954
 Vibration     4          0.651              1.798              1.893
 Vibration     5          0.686              1.691              1.471
 Vibration     6          0.743              1.531              1.074
 Vibration     7          0.762              1.482              0.983
 Vibration     8          0.790              1.407              0.862
 Vibration     9          0.824              1.325              0.748
 Vibration    10          0.866              1.227              0.632
 Vibration    11          0.901              1.148              0.552

 Optimization completed.
    -- Stationary point found.
 Normal termination of Gaussian 09 at Sun Mar 26 22:39:44 2023.
