 Gaussian 09, Revision A.02,
 Gaussian 09:  EM64L-G09RevA.02 11-Jun-2009

 ----------------------------------------------------------------------
 # opt=tight freq cam-b3lyp/gen geom=connectivity scf=qc int=ultrafine
 scrf=(cpcm,solvent=acetonitrile)
 ----------------------------------------------------------------------

 ---------------------------------------------------
 NA CAM-B3LYP def2-TZVPD - solvent cpcm acetonitrile
 ---------------------------------------------------
 Symbolic Z-matrix:
 Charge =  0 Multiplicity = 1

 SCF Done:  E(RCAM-B3LYP) =  -492.091561411     a.u. after    8 cycles
 SCF Done:  E(RCAM-B3LYP) =  -492.097719317     a.u. after    5 cycles
 SCF Done:  E(RCAM-B3LYP) =  -492.101649351     a.u. after   18 cycles
 SCF Done:  E(RCAM-B3LYP) =  -492.098473991     a.u. after    6 cycles
 SCF Done:  E(RCAM-B3LYP) =  -492.101705314     a.u. after    5 cycles
 SCF Done:  E(RCAM-B3LYP) =  -492.101840437     a.u. after    4 cycles
 SCF Done:  E(RCAM-B3LYP) =  -492.101888776     a.u. after    3 cycles
 SCF Done:  E(RCAM-B3LYP) =  -492.101911063     a.u. after   17 cycles
 SCF Done:  E(RCAM-B3LYP) =  -492.101924501     a.u. after    3 cycles
 SCF Done:  E(RCAM-B3LYP) =  -492.101936587     a.u. after    3 cycles
 SCF Done:  E(RCAM-B3LYP) =  -492.101939128     a.u. after   17 cycles
 SCF Done:  E(RCAM-B3LYP) =  -492.101939239     a.u. after    2 cycles
 SCF Done:  E(RCAM-B3LYP) =  -492.101939246     a.u. after    2 cycles
 SCF Done:  E(RCAM-B3LYP) =  -492.101939254     a.u. after   18 cycles
 SCF Done:  E(RCAM-B3LYP) =  -492.101939254     a.u. after   18 cycles
 SCF Done:  E(RCAM-B3LYP) =  -492.101939254     a.u. after   18 cycles
 Optimization completed.
    -- Stationary point found.
 Normal termination of Gaussian 09 at Sun Nov 27 08:50:44 2022.

 ----------------------------------------------------------------------
 #N Geom=AllCheck Guess=TCheck SCRF=Check GenChk RCAM-B3LYP/ChkBas Freq
 ----------------------------------------------------------------------

 NA CAM-B3LYP def2-TZVPD - solvent cpcm acetonitrile
 ---------------------------------------------------
 Redundant internal coordinates taken from checkpoint file:
 /home/matheusmaximo/Gaussian/S0solvent/CH3CN/1.chk
 Charge =  0 Multiplicity = 1

                         Standard orientation:
 ---------------------------------------------------------------------
 Center     Atomic      Atomic             Coordinates (Angstroms)
 Number     Number       Type             X           Y           Z
 ---------------------------------------------------------------------
      1          6           0       -0.018418   -1.208286   -0.002047
      2          6           0       -0.705615    0.000000   -0.001382
      3          6           0       -0.018417    1.208286   -0.002050
      4          6           0        1.352663    1.209174   -0.003107
      5          6           0        2.069558    0.000000   -0.002835
      6          6           0        1.352662   -1.209174   -0.003104
      7          1           0       -0.568188   -2.136940   -0.000683
      8          1           0       -0.568187    2.136941   -0.000688
      9          1           0        1.891963    2.146976   -0.004315
     10          1           0        1.891963   -2.146975   -0.004309
     11          7           0       -2.142768    0.000000    0.001632
     12          8           0       -2.729036    1.072613    0.002917
     13          8           0       -2.729035   -1.072614    0.002909
     14          7           0        3.422817    0.000000   -0.026071
     15          1           0        3.931036    0.855787    0.110810
     16          1           0        3.931035   -0.855788    0.110807
 ---------------------------------------------------------------------

 SCF Done:  E(RCAM-B3LYP) =  -492.101939248     a.u. after    1 cycles

 The electronic state is 1-A.
 Alpha  occ. eigenvalues --  -19.23482 -19.23480 -14.63648 -14.41300 -10.31892
 Alpha  occ. eigenvalues --  -10.29767 -10.27412 -10.27410 -10.25897 -10.25896
 Alpha  occ. eigenvalues --   -1.32455  -1.14225  -1.03160  -0.96640  -0.87965
 Alpha  occ. eigenvalues --   -0.85542  -0.77184  -0.71796  -0.67682  -0.64404
 Alpha  occ. eigenvalues --   -0.62230  -0.61601  -0.61102  -0.58911  -0.52934
 Alpha  occ. eigenvalues --   -0.52297  -0.51161  -0.48935  -0.48380  -0.42750
 Alpha  occ. eigenvalues --   -0.40795  -0.39380  -0.38834  -0.37124  -0.33697
 Alpha  occ. eigenvalues --   -0.28182
 Alpha virt. eigenvalues --   -0.04995   0.01658   0.03149   0.04437   0.05193
 Alpha virt. eigenvalues --    0.05515   0.06721   0.07187   0.07270   0.09145
 Alpha virt. eigenvalues --    0.10509   0.10753   0.11418   0.12514   0.14506

 Mulliken atomic charges:
              1
     1  C   -0.405067
     2  C   -0.085659
     3  C   -0.405067
     4  C   -0.595563
     5  C    0.874012
     6  C   -0.595561
     7  H    0.441716
     8  H    0.441716
     9  H    0.340293
    10  H    0.340292
    11  N    0.912793
    12  O   -0.633032
    13  O   -0.633032
    14  N   -0.441704
    15  H    0.221932
    16  H    0.221931
 Sum of Mulliken atomic charges =   0.00000

 Dipole moment (field-independent basis, Debye):
    X=             10.0874    Y=              0.0000    Z=              0.4807  Tot=             10.0988
 Quadrupole moment (field-independent basis, Debye-Ang):
   XX=            -56.6331   YY=            -52.6738   ZZ=            -60.3143
   XY=              0.0000   XZ=              2.0280   YZ=              0.0000

  Exact polarizability: 234.157   0.000 139.202  -0.979   0.000  73.551
 Approx polarizability: 187.665   0.000 138.691  -0.810   0.000  72.116

                     1                      2                      3
                     A                      A                      A
 Frequencies --    63.8341               111.5942               209.4689
 Red. masses --     7.6355                 5.8297                 1.2193
 Frc consts  --     0.0183                 0.0428                 0.0315
 IR Inten    --     0.0370                 0.0942               500.3922

                     4                      5                      6
                     A                      A                      A
 Frequencies --   228.1143               290.0738               371.4343
 Red. masses --     6.4723                 5.8537                 9.1305
 Frc consts  --     0.1984                 0.2902                 0.7422
 IR Inten    --     0.3850                 2.4739                 1.0793

                     7                      8                      9
                     A                      A                      A
 Frequencies --   394.3656               428.8691               468.6417
 Red. masses --     2.8874                 2.3583                 1.1495
 Frc consts  --     0.2646                 0.2556                 0.1487
 IR Inten    --     1.9274                 0.8147                 4.3830

                    10                     11                     12
                     A                      A                      A
 Frequencies --   510.2525               546.0843               654.3009
 Red. masses --     2.5383                 6.8225                 6.8829
 Frc consts  --     0.3894                 1.1987                 1.7361
 IR Inten    --    25.1921                 6.2711                 2.6889

                    13                     14                     15
                     A                      A                      A
 Frequencies --   654.8492               726.0277               800.6916
 Red. masses --     6.7994                 3.1249                 6.0238
 Frc consts  --     1.7179                 0.9705                 2.2754
 IR Inten    --    44.5883                16.3559                46.0479

                    16                     17                     18
                     A                      A                      A
 Frequencies --   836.8890               845.8593               879.5693
 Red. masses --     1.2613                 5.5935                 2.0647
 Frc consts  --     0.5205                 2.3579                 0.9411
 IR Inten    --     0.0670                 0.5382                59.5966

                    19                     20                     21
                     A                      A                      A
 Frequencies --   893.6823              1010.9009              1016.4828
 Red. masses --     8.9697                 1.3723                 1.3457
 Frc consts  --     4.2208                 0.8263                 0.8192
 IR Inten    --    28.1766                 0.4788                 0.0001

                    22                     23                     24
                     A                      A                      A
 Frequencies --  1029.8035              1061.8031              1137.4470
 Red. masses --     2.6844                 1.4145                 2.0805
 Frc consts  --     1.6773                 0.9396                 1.5859
 IR Inten    --     6.0116                 1.1901               729.5500

                    25                     26                     27
                     A                      A                      A
 Frequencies --  1157.1656              1220.4919              1346.8540
 Red. masses --     1.1563                 1.6159                 1.3779
 Frc consts  --     0.9122                 1.4182                 1.4727
 IR Inten    --    22.9976                20.8705                 1.5049

                    28                     29                     30
                     A                      A                      A
 Frequencies --  1347.8152              1380.9626              1389.4491
 Red. masses --     4.3601                 6.3311                 4.6522
 Frc consts  --     4.6667                 7.1136                 5.2917
 IR Inten    --  1800.0594                 7.4653               493.9568

                    31                     32                     33
                     A                      A                      A
 Frequencies --  1501.4405              1558.1075              1558.3469
 Red. masses --     3.8135                10.0056                 2.6649
 Frc consts  --     5.0651                14.3116                 3.8129
 IR Inten    --    68.3085               499.2625                92.5264

                    34                     35                     36
                     A                      A                      A
 Frequencies --  1654.7896              1655.7517              1667.7218
 Red. masses --     7.3672                 1.2449                 5.2993
 Frc consts  --    11.8860                 2.0108                 8.6839
 IR Inten    --   120.3128                96.1934               705.1084

                    37                     38                     39
                     A                      A                      A
 Frequencies --  3207.2506              3207.7088              3247.2074
 Red. masses --     1.0910                 1.0911                 1.0931
 Frc consts  --     6.6123                 6.6146                 6.7910
 IR Inten    --     5.0658                13.1238                 0.3879

                    40                     41                     42
                     A                      A                      A
 Frequencies --  3247.4604              3613.4201              3724.8300
 Red. masses --     1.0939                 1.0458                 1.1048
 Frc consts  --     6.7968                 8.0455                 9.0314
 IR Inten    --     4.8523               243.1309                80.9158

 - Thermochemistry -
 -------------------
 Temperature   298.150 Kelvin.  Pressure   1.00000 Atm.
 Atom     1 has atomic number  6 and mass  12.00000

 Molecular mass:   138.04293 amu.
 Principal axes and moments of inertia in atomic units:
                           1         2         3
     Eigenvalues --   453.307392164.624292617.69233
           X            1.00000   0.00000   0.00143
           Y            0.00000   1.00000   0.00000
           Z           -0.00143   0.00000   1.00000
 This molecule is an asymmetric top.
 Rotational symmetry number  1.
 Warning -- assumption of classical behavior for rotation
           may cause significant error
 Rotational temperatures (Kelvin)      0.19107     0.04001     0.03309
 Rotational constants (GHZ):           3.98127     0.83374     0.68944
 Zero-point vibrational energy     316159.9 (Joules/Mol)
                                   75.56404 (Kcal/Mol)
 Warning -- explicit consideration of  11 degrees of freedom as
           vibrations may cause significant error
 Vibrational temperatures:     91.84   160.56   301.38   328.21   417.35
          (Kelvin)            534.41   567.40   617.05   674.27   734.14
                              785.69   941.39   942.18  1044.59  1152.02
                             1204.10  1217.00  1265.50  1285.81  1454.46
                             1462.49  1481.66  1527.70  1636.53  1664.90
                             1756.01  1937.82  1939.20  1986.89  1999.10
                             2160.24  2241.77  2242.11  2380.87  2382.25
                             2399.48  4614.51  4615.17  4672.00  4672.37
                             5198.90  5359.19

 Zero-point correction=                           0.120419 (Hartree/Particle)
 Thermal correction to Energy=                    0.128796
 Thermal correction to Enthalpy=                  0.129740
 Thermal correction to Gibbs Free Energy=         0.086830
 Sum of electronic and zero-point Energies=           -491.981520
 Sum of electronic and thermal Energies=              -491.973143
 Sum of electronic and thermal Enthalpies=            -491.972199
 Sum of electronic and thermal Free Energies=         -492.015109

                     E (Thermal)             CV                S
                      KCal/Mol        Cal/Mol-Kelvin    Cal/Mol-Kelvin
 Total                   80.821             31.640             90.313
 Electronic               0.000              0.000              0.000
 Translational            0.889              2.981             40.679
 Rotational               0.889              2.981             29.331
 Vibrational             79.043             25.679             20.303
 Vibration     1          0.597              1.972              4.335
 Vibration     2          0.607              1.940              3.241
 Vibration     3          0.642              1.826              2.048
 Vibration     4          0.651              1.798              1.894
 Vibration     5          0.686              1.692              1.474
 Vibration     6          0.743              1.531              1.074
 Vibration     7          0.761              1.482              0.984
 Vibration     8          0.790              1.407              0.862
 Vibration     9          0.826              1.320              0.741
 Vibration    10          0.865              1.227              0.633
 Vibration    11          0.901              1.148              0.552

 Optimization completed.
    -- Stationary point found.
 Normal termination of Gaussian 09 at Sun Nov 27 13:28:56 2022.
