 Gaussian 09, Revision A.02,
 Gaussian 09:  EM64L-G09RevA.02 11-Jun-2009

 ----------------------------------------------------------------------
 # opt=tight freq cam-b3lyp/gen geom=connectivity scf=qc int=ultrafine
 scrf=(cpcm,solvent=cyclohexane)
 ----------------------------------------------------------------------

 --------------------------------------------------
 NA CAM-B3LYP def2-TZVPD - solvent cpcm cyclohexane
 --------------------------------------------------
 Symbolic Z-matrix:
 Charge =  0 Multiplicity = 1

 SCF Done:  E(RCAM-B3LYP) =  -492.084661736     a.u. after    8 cycles
 SCF Done:  E(RCAM-B3LYP) =  -492.090723185     a.u. after    5 cycles
 SCF Done:  E(RCAM-B3LYP) =  -492.094594621     a.u. after   19 cycles
 SCF Done:  E(RCAM-B3LYP) =  -492.092466405     a.u. after    6 cycles
 SCF Done:  E(RCAM-B3LYP) =  -492.094632738     a.u. after    5 cycles
 SCF Done:  E(RCAM-B3LYP) =  -492.094742882     a.u. after    4 cycles
 SCF Done:  E(RCAM-B3LYP) =  -492.094771340     a.u. after   18 cycles
 SCF Done:  E(RCAM-B3LYP) =  -492.094779836     a.u. after    3 cycles
 SCF Done:  E(RCAM-B3LYP) =  -492.094781920     a.u. after    2 cycles
 SCF Done:  E(RCAM-B3LYP) =  -492.094784054     a.u. after   19 cycles
 SCF Done:  E(RCAM-B3LYP) =  -492.094784844     a.u. after    2 cycles
 SCF Done:  E(RCAM-B3LYP) =  -492.094784887     a.u. after   18 cycles
 SCF Done:  E(RCAM-B3LYP) =  -492.094784891     a.u. after   18 cycles
 SCF Done:  E(RCAM-B3LYP) =  -492.094784892     a.u. after   18 cycles
 SCF Done:  E(RCAM-B3LYP) =  -492.094784891     a.u. after   18 cycles
 Optimization completed.
    -- Stationary point found.
 Normal termination of Gaussian 09 at Sat Nov 26 05:00:43 2022.

 ----------------------------------------------------------------------
 #N Geom=AllCheck Guess=TCheck SCRF=Check GenChk RCAM-B3LYP/ChkBas Freq
 ----------------------------------------------------------------------

 NA CAM-B3LYP def2-TZVPD - solvent cpcm cyclohexane
 --------------------------------------------------
 Redundant internal coordinates taken from checkpoint file:
 /home/matheusmaximo/Gaussian/S0solvent/Cyclohexane/1.chk
 Charge =  0 Multiplicity = 1

                         Standard orientation:
 ---------------------------------------------------------------------
 Center     Atomic      Atomic             Coordinates (Angstroms)
 Number     Number       Type             X           Y           Z
 ---------------------------------------------------------------------
      1          6           0        0.019905    1.206296   -0.002391
      2          6           0        0.703126    0.000001   -0.001456
      3          6           0        0.019907   -1.206294   -0.002397
      4          6           0       -1.353992   -1.206080   -0.004140
      5          6           0       -2.067662   -0.000001   -0.004419
      6          6           0       -1.353993    1.206079   -0.004133
      7          1           0        0.574211    2.132376   -0.000785
      8          1           0        0.574214   -2.132374   -0.000795
      9          1           0       -1.892882   -2.144526   -0.007112
     10          1           0       -1.892886    2.144524   -0.007098
     11          7           0        2.151691    0.000000    0.002269
     12          8           0        2.727776   -1.073356    0.003851
     13          8           0        2.727778    1.073355    0.003834
     14          7           0       -3.431913    0.000000   -0.040272
     15          1           0       -3.924642   -0.850744    0.166974
     16          1           0       -3.924639    0.850744    0.166979
 ---------------------------------------------------------------------

 SCF Done:  E(RCAM-B3LYP) =  -492.094784891     a.u. after    1 cycles

 The electronic state is 1-A.
 Alpha  occ. eigenvalues --  -19.22945 -19.22943 -14.63126 -14.41888 -10.32067
 Alpha  occ. eigenvalues --  -10.29858 -10.27539 -10.27537 -10.26327 -10.26327
 Alpha  occ. eigenvalues --   -1.32090  -1.13976  -1.03547  -0.96738  -0.87853
 Alpha  occ. eigenvalues --   -0.85789  -0.77221  -0.72143  -0.67680  -0.64232
 Alpha  occ. eigenvalues --   -0.61790  -0.61775  -0.61110  -0.58507  -0.53356
 Alpha  occ. eigenvalues --   -0.52680  -0.51477  -0.49313  -0.48486  -0.43169
 Alpha  occ. eigenvalues --   -0.41078  -0.38525  -0.38140  -0.36571  -0.33855
 Alpha  occ. eigenvalues --   -0.28778
 Alpha virt. eigenvalues --   -0.04346   0.01276   0.02492   0.04345   0.04735
 Alpha virt. eigenvalues --    0.05361   0.06759   0.07134   0.07178   0.09926
 Alpha virt. eigenvalues --    0.10373   0.10548   0.11387   0.12896   0.13715

 Mulliken atomic charges:
              1
     1  C   -0.390989
     2  C   -0.196208
     3  C   -0.390981
     4  C   -0.525792
     5  C    0.907734
     6  C   -0.525788
     7  H    0.435943
     8  H    0.435943
     9  H    0.289658
    10  H    0.289657
    11  N    0.913130
    12  O   -0.608813
    13  O   -0.608813
    14  N   -0.454350
    15  H    0.214836
    16  H    0.214835
 Sum of Mulliken atomic charges =   0.00000

 Dipole moment (field-independent basis, Debye):
    X=             -8.1821    Y=              0.0000    Z=              0.6434  Tot=              8.2074
 Quadrupole moment (field-independent basis, Debye-Ang):
   XX=            -57.8249   YY=            -52.9327   ZZ=            -60.2075
   XY=              0.0000   XZ=             -2.8242   YZ=              0.0001

  Exact polarizability: 180.255   0.000 117.508   0.667   0.000  62.837
 Approx polarizability: 173.887   0.000 141.016   0.847   0.000  72.049

                     1                      2                      3
                     A                      A                      A
 Frequencies --    65.9418               113.4212               228.7214
 Red. masses --     7.7158                 5.7085                 6.4745
 Frc consts  --     0.0198                 0.0433                 0.1996
 IR Inten    --     0.0626                 0.2530                 0.3656

                     4                      5                      6
                     A                      A                      A
 Frequencies --   293.7007               331.3363               371.7369
 Red. masses --     3.9274                 1.4206                 7.4786
 Frc consts  --     0.1996                 0.0919                 0.6089
 IR Inten    --    31.7309               400.3281                 9.9923

                     7                      8                      9
                     A                      A                      A
 Frequencies --   393.8433               416.5346               437.2912
 Red. masses --     2.2567                 1.2685                 2.5380
 Frc consts  --     0.2062                 0.1297                 0.2859
 IR Inten    --     3.6971                 6.1349                 0.7765

                    10                     11                     12
                     A                      A                      A
 Frequencies --   514.2194               545.3991               654.5593
 Red. masses --     2.6239                 6.7963                 6.6714
 Frc consts  --     0.4088                 1.1911                 1.6841
 IR Inten    --    15.1364                 3.9229                21.0628

                    13                     14                     15
                     A                      A                      A
 Frequencies --   656.3284               723.0592               799.0482
 Red. masses --     6.8903                 3.1496                 5.6838
 Frc consts  --     1.7488                 0.9702                 2.1381
 IR Inten    --     1.4836                13.1839                36.5067

                    16                     17                     18
                     A                      A                      A
 Frequencies --   840.0216               845.2150               880.5426
 Red. masses --     1.2583                 5.5282                 2.0413
 Frc consts  --     0.5231                 2.3269                 0.9325
 IR Inten    --     0.0533                 1.0833                46.6821

                    19                     20                     21
                     A                      A                      A
 Frequencies --   896.5374              1009.2396              1015.8888
 Red. masses --     9.0459                 1.3790                 1.3454
 Frc consts  --     4.2839                 0.8276                 0.8181
 IR Inten    --    34.0450                 0.7483                 0.0012

                    22                     23                     24
                     A                      A                      A
 Frequencies --  1034.8667              1071.0704              1145.5423
 Red. masses --     2.6703                 1.3992                 2.1749
 Frc consts  --     1.6849                 0.9458                 1.6815
 IR Inten    --     1.1888                 1.8538               259.8177

                    25                     26                     27
                     A                      A                      A
 Frequencies --  1155.0993              1218.4858              1347.2882
 Red. masses --     1.1681                 1.4921                 1.3647
 Frc consts  --     0.9182                 1.3052                 1.4595
 IR Inten    --    15.4541                13.5780                 0.1210

                    28                     29                     30
                     A                      A                      A
 Frequencies --  1350.8179              1373.4228              1410.7336
 Red. masses --     3.2575                 6.3914                10.2113
 Frc consts  --     3.5021                 7.1032                11.9735
 IR Inten    --   374.9624                 2.4732               759.6033

                    31                     32                     33
                     A                      A                      A
 Frequencies --  1500.4871              1560.3227              1595.3984
 Red. masses --     3.4521                 2.6671                11.4511
 Frc consts  --     4.5793                 3.8258                17.1726
 IR Inten    --     9.1543                72.2634               339.1158

                    34                     35                     36
                     A                      A                      A
 Frequencies --  1658.9031              1670.2404              1677.5779
 Red. masses --     1.3009                 7.7622                 4.2613
 Frc consts  --     2.1093                12.7583                 7.0657
 IR Inten    --    27.7434               116.2968               483.6283

                    37                     38                     39
                     A                      A                      A
 Frequencies --  3201.8000              3202.3703              3246.9039
 Red. masses --     1.0908                 1.0908                 1.0930
 Frc consts  --     6.5887                 6.5909                 6.7888
 IR Inten    --     5.9341                11.1256                 0.8607

                    40                     41                     42
                     A                      A                      A
 Frequencies --  3247.0856              3612.9524              3719.9161
 Red. masses --     1.0937                 1.0462                 1.1032
 Frc consts  --     6.7942                 8.0463                 8.9946
 IR Inten    --     4.6070               127.9481                51.1817

 - Thermochemistry -
 -------------------
 Temperature   298.150 Kelvin.  Pressure   1.00000 Atm.
 Atom     1 has atomic number  6 and mass  12.00000

 Molecular mass:   138.04293 amu.
 Principal axes and moments of inertia in atomic units:
                           1         2         3
     Eigenvalues --   452.313692168.586422620.35114
           X            1.00000   0.00000  -0.00214
           Y            0.00000   1.00000   0.00000
           Z            0.00214   0.00000   1.00000
 This molecule is an asymmetric top.
 Rotational symmetry number  1.
 Warning -- assumption of classical behavior for rotation
           may cause significant error
 Rotational temperatures (Kelvin)      0.19149     0.03994     0.03305
 Rotational constants (GHZ):           3.99002     0.83222     0.68874
 Zero-point vibrational energy     317213.0 (Joules/Mol)
                                   75.81572 (Kcal/Mol)
 Warning -- explicit consideration of  11 degrees of freedom as
           vibrations may cause significant error
 Vibrational temperatures:     94.88   163.19   329.08   422.57   476.72
          (Kelvin)            534.85   566.65   599.30   629.16   739.85
                              784.71   941.76   944.31  1040.32  1149.65
                             1208.60  1216.07  1266.90  1289.92  1452.07
                             1461.64  1488.94  1541.03  1648.18  1661.93
                             1753.13  1938.44  1943.52  1976.05  2029.73
                             2158.86  2244.95  2295.42  2386.79  2403.10
                             2413.66  4606.67  4607.49  4671.56  4671.83
                             5198.23  5352.12

 Zero-point correction=                           0.120820 (Hartree/Particle)
 Thermal correction to Energy=                    0.129052
 Thermal correction to Enthalpy=                  0.129996
 Thermal correction to Gibbs Free Energy=         0.087465
 Sum of electronic and zero-point Energies=           -491.973965
 Sum of electronic and thermal Energies=              -491.965733
 Sum of electronic and thermal Enthalpies=            -491.964788
 Sum of electronic and thermal Free Energies=         -492.007320

                     E (Thermal)             CV                S
                      KCal/Mol        Cal/Mol-Kelvin    Cal/Mol-Kelvin
 Total                   80.981             31.468             89.515
 Electronic               0.000              0.000              0.000
 Translational            0.889              2.981             40.679
 Rotational               0.889              2.981             29.332
 Vibrational             79.204             25.507             19.505
 Vibration     1          0.597              1.971              4.271
 Vibration     2          0.607              1.938              3.210
 Vibration     3          0.651              1.797              1.889
 Vibration     4          0.688              1.685              1.453
 Vibration     5          0.714              1.613              1.254
 Vibration     6          0.743              1.530              1.073
 Vibration     7          0.761              1.483              0.986
 Vibration     8          0.780              1.434              0.904
 Vibration     9          0.798              1.389              0.835
 Vibration    10          0.869              1.218              0.624
 Vibration    11          0.901              1.150              0.554

 Optimization completed.
    -- Stationary point found.
 Normal termination of Gaussian 09 at Sat Nov 26 09:42:06 2022.
