 Gaussian 09, Revision A.02,
 Gaussian 09:  EM64L-G09RevA.02 11-Jun-2009

 ----------------------------------------------------------------------
 # opt=tight freq cam-b3lyp/gen geom=connectivity scf=qc int=ultrafine
 scrf=(cpcm,solvent=DMSO)
 ----------------------------------------------------------------------

 -------------------------------------------
 NA CAM-B3LYP def2-TZVPD - solvent CPCM DMSO
 -------------------------------------------
 Symbolic Z-matrix:
 Charge =  0 Multiplicity = 1

 SCF Done:  E(RCAM-B3LYP) =  -492.091671860     a.u. after    8 cycles
 SCF Done:  E(RCAM-B3LYP) =  -492.097832626     a.u. after    5 cycles
 SCF Done:  E(RCAM-B3LYP) =  -492.101765084     a.u. after   18 cycles
 SCF Done:  E(RCAM-B3LYP) =  -492.098579029     a.u. after    6 cycles
 SCF Done:  E(RCAM-B3LYP) =  -492.101821357     a.u. after    5 cycles
 SCF Done:  E(RCAM-B3LYP) =  -492.101957272     a.u. after    4 cycles
 SCF Done:  E(RCAM-B3LYP) =  -492.102006279     a.u. after    3 cycles
 SCF Done:  E(RCAM-B3LYP) =  -492.102029079     a.u. after   17 cycles
 SCF Done:  E(RCAM-B3LYP) =  -492.102042947     a.u. after    3 cycles
 SCF Done:  E(RCAM-B3LYP) =  -492.102055392     a.u. after    3 cycles
 SCF Done:  E(RCAM-B3LYP) =  -492.102057996     a.u. after   17 cycles
 SCF Done:  E(RCAM-B3LYP) =  -492.102058115     a.u. after    2 cycles
 SCF Done:  E(RCAM-B3LYP) =  -492.102058122     a.u. after    2 cycles
 SCF Done:  E(RCAM-B3LYP) =  -492.102058130     a.u. after   18 cycles
 SCF Done:  E(RCAM-B3LYP) =  -492.102058130     a.u. after   18 cycles
 SCF Done:  E(RCAM-B3LYP) =  -492.102058130     a.u. after   18 cycles
 Optimization completed.
    -- Stationary point found.
 Normal termination of Gaussian 09 at Thu Jan 19 18:18:56 2023.

 ----------------------------------------------------------------------
 #N Geom=AllCheck Guess=TCheck SCRF=Check GenChk RCAM-B3LYP/ChkBas Freq
 ----------------------------------------------------------------------

 NA CAM-B3LYP def2-TZVPD - solvent CPCM DMSO
 -------------------------------------------
 Redundant internal coordinates taken from checkpoint file:
 /home/matheusmaximo/Gaussian/S0solvents/DMSO/1.chk
 Charge =  0 Multiplicity = 1

                         Standard orientation:
 ---------------------------------------------------------------------
 Center     Atomic      Atomic             Coordinates (Angstroms)
 Number     Number       Type             X           Y           Z
 ---------------------------------------------------------------------
      1          6           0       -0.018385   -1.208328   -0.002040
      2          6           0       -0.705675    0.000000   -0.001378
      3          6           0       -0.018384    1.208328   -0.002043
      4          6           0        1.352631    1.209242   -0.003082
      5          6           0        2.069598    0.000000   -0.002787
      6          6           0        1.352630   -1.209242   -0.003078
      7          1           0       -0.568082   -2.137024   -0.000697
      8          1           0       -0.568081    2.137025   -0.000703
      9          1           0        1.891944    2.147029   -0.004268
     10          1           0        1.891943   -2.147029   -0.004260
     11          7           0       -2.142583    0.000000    0.001614
     12          8           0       -2.729052    1.072609    0.002892
     13          8           0       -2.729050   -1.072609    0.002883
     14          7           0        3.422608    0.000000   -0.025591
     15          1           0        3.931212    0.855912    0.109007
     16          1           0        3.931211   -0.855913    0.109005
 ---------------------------------------------------------------------

 SCF Done:  E(RCAM-B3LYP) =  -492.102058123     a.u. after    1 cycles

 The electronic state is 1-A.
 Alpha  occ. eigenvalues --  -19.23489 -19.23488 -14.63655 -14.41293 -10.31890
 Alpha  occ. eigenvalues --  -10.29765 -10.27410 -10.27408 -10.25890 -10.25889
 Alpha  occ. eigenvalues --   -1.32459  -1.14227  -1.03156  -0.96639  -0.87968
 Alpha  occ. eigenvalues --   -0.85539  -0.77184  -0.71791  -0.67683  -0.64406
 Alpha  occ. eigenvalues --   -0.62237  -0.61601  -0.61103  -0.58916  -0.52927
 Alpha  occ. eigenvalues --   -0.52291  -0.51157  -0.48928  -0.48381  -0.42743
 Alpha  occ. eigenvalues --   -0.40791  -0.39394  -0.38845  -0.37132  -0.33695
 Alpha  occ. eigenvalues --   -0.28171
 Alpha virt. eigenvalues --   -0.05007   0.01665   0.03152   0.04439   0.05196
 Alpha virt. eigenvalues --    0.05519   0.06721   0.07188   0.07272   0.09131
 Alpha virt. eigenvalues --    0.10510   0.10756   0.11418   0.12505   0.14510

 Mulliken atomic charges:
              1
     1  C   -0.405304
     2  C   -0.083842
     3  C   -0.405304
     4  C   -0.596798
     5  C    0.874381
     6  C   -0.596797
     7  H    0.441745
     8  H    0.441745
     9  H    0.341058
    10  H    0.341058
    11  N    0.912658
    12  O   -0.633482
    13  O   -0.633482
    14  N   -0.441259
    15  H    0.221811
    16  H    0.221810
 Sum of Mulliken atomic charges =   0.00000

 Dipole moment (field-independent basis, Debye):
    X=             10.1268    Y=              0.0000    Z=              0.4735  Tot=             10.1379
 Quadrupole moment (field-independent basis, Debye-Ang):
   XX=            -56.6029   YY=            -52.6710   ZZ=            -60.3165
   XY=              0.0000   XZ=              1.9968   YZ=              0.0000

  Exact polarizability: 235.301   0.000 139.562  -0.974   0.000  73.730
 Approx polarizability: 187.975   0.000 138.642  -0.802   0.000  72.116

                     1                      2                      3
                     A                      A                      A
 Frequencies --    63.8092               111.5089               205.6319
 Red. masses --     7.6337                 5.8283                 1.2197
 Frc consts  --     0.0183                 0.0427                 0.0304
 IR Inten    --     0.0359                 0.0924               498.0583

                     4                      5                      6
                     A                      A                      A
 Frequencies --   228.0972               289.9220               371.4295
 Red. masses --     6.4714                 5.8338                 9.1431
 Frc consts  --     0.1984                 0.2889                 0.7432
 IR Inten    --     0.3842                 2.5790                 1.1222

                     7                      8                      9
                     A                      A                      A
 Frequencies --   394.2843               428.8818               469.4118
 Red. masses --     2.8891                 2.3690                 1.1461
 Frc consts  --     0.2646                 0.2567                 0.1488
 IR Inten    --     1.9252                 0.7747                 4.2719

                    10                     11                     12
                     A                      A                      A
 Frequencies --   510.1585               546.0983               654.2570
 Red. masses --     2.5366                 6.8236                 6.8826
 Frc consts  --     0.3890                 1.1990                 1.7358
 IR Inten    --    25.4186                 6.3253                 2.7171

                    13                     14                     15
                     A                      A                      A
 Frequencies --   654.8415               726.0650               800.7223
 Red. masses --     6.8019                 3.1241                 6.0321
 Frc consts  --     1.7185                 0.9703                 2.2787
 IR Inten    --    45.3067                16.4219                46.1853

                    16                     17                     18
                     A                      A                      A
 Frequencies --   836.8052               845.8638               879.5218
 Red. masses --     1.2614                 5.5949                 2.0653
 Frc consts  --     0.5204                 2.3585                 0.9413
 IR Inten    --     0.0662                 0.5246                59.8170

                    19                     20                     21
                     A                      A                      A
 Frequencies --   893.6165              1010.9307              1016.4908
 Red. masses --     8.9681                 1.3722                 1.3457
 Frc consts  --     4.2194                 0.8262                 0.8192
 IR Inten    --    27.8572                 0.4751                 0.0001

                    22                     23                     24
                     A                      A                      A
 Frequencies --  1029.6871              1061.4881              1137.2321
 Red. masses --     2.6848                 1.4150                 2.0788
 Frc consts  --     1.6772                 0.9393                 1.5841
 IR Inten    --     6.2096                 1.1692               744.9677

                    25                     26                     27
                     A                      A                      A
 Frequencies --  1157.1972              1220.5354              1346.8228
 Red. masses --     1.1561                 1.6193                 1.3781
 Frc consts  --     0.9121                 1.4213                 1.4729
 IR Inten    --    23.1562                21.1391                 1.5547

                    28                     29                     30
                     A                      A                      A
 Frequencies --  1347.4160              1381.1061              1389.2855
 Red. masses --     4.4121                 6.3299                 4.5692
 Frc consts  --     4.7196                 7.1138                 5.1960
 IR Inten    --  1849.1336                 7.6371               474.0742

                    31                     32                     33
                     A                      A                      A
 Frequencies --  1501.4434              1557.4236              1558.3223
 Red. masses --     3.8284                 9.9416                 2.6646
 Frc consts  --     5.0850                14.2075                 3.8124
 IR Inten    --    71.0144               500.5549                92.7980

                    34                     35                     36
                     A                      A                      A
 Frequencies --  1654.4781              1655.6543              1667.5590
 Red. masses --     7.3616                 1.2436                 5.3361
 Frc consts  --    11.8726                 2.0084                 8.7426
 IR Inten    --   120.4824                99.6187               708.0620

                    37                     38                     39
                     A                      A                      A
 Frequencies --  3207.3375              3207.7937              3247.2046
 Red. masses --     1.0910                 1.0911                 1.0931
 Frc consts  --     6.6127                 6.6150                 6.7910
 IR Inten    --     5.0444                13.1649                 0.3794

                    40                     41                     42
                     A                      A                      A
 Frequencies --  3247.4594              3613.4681              3724.9978
 Red. masses --     1.0939                 1.0458                 1.1049
 Frc consts  --     6.7969                 8.0456                 9.0326
 IR Inten    --     4.8612               246.2081                81.5761

 - Thermochemistry -
 -------------------
 Temperature   298.150 Kelvin.  Pressure   1.00000 Atm.
 Atom     1 has atomic number  6 and mass  12.00000

 Molecular mass:   138.04293 amu.
 Principal axes and moments of inertia in atomic units:
                           1         2         3
     Eigenvalues --   453.330942164.530172617.62969
           X            1.00000   0.00000   0.00140
           Y            0.00000   1.00000   0.00000
           Z           -0.00140   0.00000   1.00000
 This molecule is an asymmetric top.
 Rotational symmetry number  1.
 Warning -- assumption of classical behavior for rotation
           may cause significant error
 Rotational temperatures (Kelvin)      0.19106     0.04002     0.03309
 Rotational constants (GHZ):           3.98107     0.83378     0.68946
 Zero-point vibrational energy     316126.7 (Joules/Mol)
                                   75.55610 (Kcal/Mol)
 Warning -- explicit consideration of  11 degrees of freedom as
           vibrations may cause significant error
 Vibrational temperatures:     91.81   160.44   295.86   328.18   417.13
          (Kelvin)            534.40   567.29   617.06   675.38   734.00
                              785.71   941.33   942.17  1044.64  1152.06
                             1203.97  1217.01  1265.43  1285.71  1454.50
                             1462.50  1481.49  1527.24  1636.22  1664.95
                             1756.08  1937.78  1938.63  1987.10  1998.87
                             2160.24  2240.78  2242.08  2380.42  2382.11
                             2399.24  4614.64  4615.29  4672.00  4672.36
                             5198.97  5359.43

 Zero-point correction=                           0.120406 (Hartree/Particle)
 Thermal correction to Energy=                    0.128790
 Thermal correction to Enthalpy=                  0.129734
 Thermal correction to Gibbs Free Energy=         0.086806
 Sum of electronic and zero-point Energies=           -491.981652
 Sum of electronic and thermal Energies=              -491.973269
 Sum of electronic and thermal Enthalpies=            -491.972324
 Sum of electronic and thermal Free Energies=         -492.015252

                     E (Thermal)             CV                S
                      KCal/Mol        Cal/Mol-Kelvin    Cal/Mol-Kelvin
 Total                   80.817             31.646             90.348
 Electronic               0.000              0.000              0.000
 Translational            0.889              2.981             40.679
 Rotational               0.889              2.981             29.331
 Vibrational             79.039             25.684             20.338
 Vibration     1          0.597              1.972              4.336
 Vibration     2          0.607              1.940              3.242
 Vibration     3          0.640              1.832              2.082
 Vibration     4          0.651              1.798              1.894
 Vibration     5          0.686              1.692              1.474
 Vibration     6          0.743              1.531              1.074
 Vibration     7          0.761              1.482              0.984
 Vibration     8          0.790              1.407              0.862
 Vibration     9          0.827              1.318              0.739
 Vibration    10          0.865              1.227              0.633
 Vibration    11          0.901              1.148              0.552

 Optimization completed.
    -- Stationary point found.
 Normal termination of Gaussian 09 at Fri Jan 20 01:54:50 2023.
