 Gaussian 09, Revision A.02,
 Gaussian 09:  EM64L-G09RevA.02 11-Jun-2009

 ----------------------------------------------------------------------
 # opt=tight freq cam-b3lyp/gen geom=connectivity scf=qc int=ultrafine
 scrf=(cpcm,solvent=Toluene)
 ----------------------------------------------------------------------

 ----------------------------------------------
 NA CAM-B3LYP def2-TZVPD - solvent CPCM Toluene
 ----------------------------------------------
 Symbolic Z-matrix:
 Charge =  0 Multiplicity = 1

 SCF Done:  E(RCAM-B3LYP) =  -492.085666139     a.u. after    8 cycles
 SCF Done:  E(RCAM-B3LYP) =  -492.091733209     a.u. after    5 cycles
 SCF Done:  E(RCAM-B3LYP) =  -492.095605173     a.u. after   18 cycles
 SCF Done:  E(RCAM-B3LYP) =  -492.093287953     a.u. after    6 cycles
 SCF Done:  E(RCAM-B3LYP) =  -492.095645684     a.u. after    5 cycles
 SCF Done:  E(RCAM-B3LYP) =  -492.095757571     a.u. after    4 cycles
 SCF Done:  E(RCAM-B3LYP) =  -492.095787236     a.u. after   18 cycles
 SCF Done:  E(RCAM-B3LYP) =  -492.095796474     a.u. after    3 cycles
 SCF Done:  E(RCAM-B3LYP) =  -492.095799149     a.u. after    2 cycles
 SCF Done:  E(RCAM-B3LYP) =  -492.095801901     a.u. after   17 cycles
 SCF Done:  E(RCAM-B3LYP) =  -492.095802829     a.u. after    2 cycles
 SCF Done:  E(RCAM-B3LYP) =  -492.095802877     a.u. after   17 cycles
 SCF Done:  E(RCAM-B3LYP) =  -492.095802880     a.u. after   17 cycles
 SCF Done:  E(RCAM-B3LYP) =  -492.095802881     a.u. after   17 cycles
 SCF Done:  E(RCAM-B3LYP) =  -492.095802881     a.u. after   17 cycles
 Optimization completed.
    -- Stationary point found.
 Normal termination of Gaussian 09 at Mon Dec 24 07:50:10 2018.

 ----------------------------------------------------------------------
 #N Geom=AllCheck Guess=TCheck SCRF=Check GenChk RCAM-B3LYP/ChkBas Freq
 ----------------------------------------------------------------------

 NA CAM-B3LYP def2-TZVPD - solvent CPCM Toluene
 ----------------------------------------------
 Redundant internal coordinates taken from checkpoint file:
 /home/matheusmaximo/Gaussian/S0solvents/Toluene/1.chk
 Charge =  0 Multiplicity = 1

                         Standard orientation:
 ---------------------------------------------------------------------
 Center     Atomic      Atomic             Coordinates (Angstroms)
 Number     Number       Type             X           Y           Z
 ---------------------------------------------------------------------
      1          6           0        0.019740    1.206531   -0.002334
      2          6           0        0.703378    0.000001   -0.001448
      3          6           0        0.019742   -1.206530   -0.002340
      4          6           0       -1.353856   -1.206430   -0.004019
      5          6           0       -2.067888   -0.000001   -0.004281
      6          6           0       -1.353857    1.206429   -0.004012
      7          1           0        0.573388    2.132983   -0.000704
      8          1           0        0.573391   -2.132981   -0.000714
      9          1           0       -1.892771   -2.144807   -0.006712
     10          1           0       -1.892775    2.144804   -0.006699
     11          7           0        2.150621    0.000000    0.002201
     12          8           0        2.727988   -1.073210    0.003749
     13          8           0        2.727990    1.073209    0.003732
     14          7           0       -3.430936    0.000000   -0.039221
     15          1           0       -3.925197   -0.851248    0.162361
     16          1           0       -3.925194    0.851249    0.162365
 ---------------------------------------------------------------------

 SCF Done:  E(RCAM-B3LYP) =  -492.095802878     a.u. after    1 cycles

 The electronic state is 1-A.
 Alpha  occ. eigenvalues --  -19.23026 -19.23025 -14.63205 -14.41794 -10.32033
 Alpha  occ. eigenvalues --  -10.29846 -10.27517 -10.27515 -10.26265 -10.26264
 Alpha  occ. eigenvalues --   -1.32151  -1.14022  -1.03481  -0.96719  -0.87863
 Alpha  occ. eigenvalues --   -0.85751  -0.77214  -0.72091  -0.67672  -0.64256
 Alpha  occ. eigenvalues --   -0.61843  -0.61744  -0.61102  -0.58573  -0.53296
 Alpha  occ. eigenvalues --   -0.52624  -0.51428  -0.49263  -0.48458  -0.43110
 Alpha  occ. eigenvalues --   -0.41035  -0.38645  -0.38239  -0.36653  -0.33828
 Alpha  occ. eigenvalues --   -0.28701
 Alpha virt. eigenvalues --   -0.04432   0.01329   0.02626   0.04365   0.04831
 Alpha virt. eigenvalues --    0.05379   0.06770   0.07146   0.07167   0.09826
 Alpha virt. eigenvalues --    0.10401   0.10577   0.11395   0.12862   0.13833

 Mulliken atomic charges:
              1
     1  C   -0.393051
     2  C   -0.180296
     3  C   -0.393042
     4  C   -0.535608
     5  C    0.898817
     6  C   -0.535603
     7  H    0.437194
     8  H    0.437194
     9  H    0.297398
    10  H    0.297397
    11  N    0.913835
    12  O   -0.612039
    13  O   -0.612039
    14  N   -0.454069
    15  H    0.216956
    16  H    0.216956
 Sum of Mulliken atomic charges =   0.00000

 Dipole moment (field-independent basis, Debye):
    X=             -8.4107    Y=              0.0000    Z=              0.6378  Tot=              8.4349
 Quadrupole moment (field-independent basis, Debye-Ang):
   XX=            -57.7108   YY=            -52.8872   ZZ=            -60.2208
   XY=              0.0000   XZ=             -2.7822   YZ=              0.0001

  Exact polarizability: 186.537   0.000 120.533   0.736   0.000  64.329
 Approx polarizability: 175.392   0.000 140.737   0.869   0.000  72.065

                     1                      2                      3
                     A                      A                      A
 Frequencies --    65.5760               113.3249               228.6589
 Red. masses --     7.7067                 5.7224                 6.4774
 Frc consts  --     0.0195                 0.0433                 0.1995
 IR Inten    --     0.0616                 0.2304                 0.3736

                     4                      5                      6
                     A                      A                      A
 Frequencies --   293.0620               321.8671               371.6516
 Red. masses --     3.6145                 1.4497                 7.9094
 Frc consts  --     0.1829                 0.0885                 0.6437
 IR Inten    --    43.3027               409.9603                 6.7076

                     7                      8                      9
                     A                      A                      A
 Frequencies --   394.5221               420.3901               438.8355
 Red. masses --     2.4508                 1.3064                 2.2068
 Frc consts  --     0.2247                 0.1360                 0.2504
 IR Inten    --     3.0804                 5.9308                 1.5614

                    10                     11                     12
                     A                      A                      A
 Frequencies --   513.8042               545.4808               654.6606
 Red. masses --     2.6136                 6.7965                 6.6868
 Frc consts  --     0.4065                 1.1915                 1.6885
 IR Inten    --    16.2110                 4.1743                23.0056

                    13                     14                     15
                     A                      A                      A
 Frequencies --   656.0913               723.5281               799.2675
 Red. masses --     6.8901                 3.1478                 5.7179
 Frc consts  --     1.7475                 0.9709                 2.1522
 IR Inten    --     1.6105                13.5790                37.9162

                    16                     17                     18
                     A                      A                      A
 Frequencies --   839.7416               845.3323               880.5617
 Red. masses --     1.2585                 5.5359                 2.0437
 Frc consts  --     0.5229                 2.3307                 0.9337
 IR Inten    --     0.0575                 1.0360                48.4532

                    19                     20                     21
                     A                      A                      A
 Frequencies --   896.2160              1009.4576              1015.9711
 Red. masses --     9.0352                 1.3784                 1.3455
 Frc consts  --     4.2758                 0.8276                 0.8183
 IR Inten    --    34.2113                 0.7086                 0.0009

                    22                     23                     24
                     A                      A                      A
 Frequencies --  1034.3042              1070.4879              1144.7736
 Red. masses --     2.6716                 1.4007                 2.1622
 Frc consts  --     1.6839                 0.9457                 1.6695
 IR Inten    --     1.4541                 1.8101               294.8712

                    25                     26                     27
                     A                      A                      A
 Frequencies --  1155.3892              1218.7022              1347.3520
 Red. masses --     1.1665                 1.5039                 1.3668
 Frc consts  --     0.9175                 1.3161                 1.4619
 IR Inten    --    16.3410                14.1290                 0.1947

                    28                     29                     30
                     A                      A                      A
 Frequencies --  1351.3929              1374.3406              1407.6053
 Red. masses --     3.2853                 6.3808                 9.6437
 Frc consts  --     3.5350                 7.1009                11.2579
 IR Inten    --   446.3855                 2.8292               799.5403

                    31                     32                     33
                     A                      A                      A
 Frequencies --  1500.6163              1560.0094              1590.6387
 Red. masses --     3.4729                 2.6667                11.4258
 Frc consts  --     4.6077                 3.8236                17.0326
 IR Inten    --    11.9743                75.1573               364.2753

                    34                     35                     36
                     A                      A                      A
 Frequencies --  1658.5562              1668.2981              1676.2229
 Red. masses --     1.2960                 7.6952                 4.3235
 Frc consts  --     2.1005                12.6187                 7.1574
 IR Inten    --    30.6123               116.3032               513.1777

                    37                     38                     39
                     A                      A                      A
 Frequencies --  3202.5933              3203.1491              3246.9955
 Red. masses --     1.0909                 1.0909                 1.0930
 Frc consts  --     6.5921                 6.5943                 6.7893
 IR Inten    --     5.8623                11.3844                 0.8014

                    40                     41                     42
                     A                      A                      A
 Frequencies --  3247.1838              3612.7269              3720.0933
 Red. masses --     1.0937                 1.0462                 1.1034
 Frc consts  --     6.7948                 8.0451                 8.9968
 IR Inten    --     4.6248               138.7301                54.4990

 - Thermochemistry -
 -------------------
 Temperature   298.150 Kelvin.  Pressure   1.00000 Atm.
 Atom     1 has atomic number  6 and mass  12.00000

 Molecular mass:   138.04293 amu.
 Principal axes and moments of inertia in atomic units:
                           1         2         3
     Eigenvalues --   452.417672168.180722620.07895
           X            1.00000   0.00000  -0.00208
           Y            0.00000   1.00000   0.00000
           Z            0.00208   0.00000   1.00000
 This molecule is an asymmetric top.
 Rotational symmetry number  1.
 Warning -- assumption of classical behavior for rotation
           may cause significant error
 Rotational temperatures (Kelvin)      0.19145     0.03995     0.03306
 Rotational constants (GHZ):           3.98910     0.83238     0.68881
 Zero-point vibrational energy     317126.6 (Joules/Mol)
                                   75.79508 (Kcal/Mol)
 Warning -- explicit consideration of  11 degrees of freedom as
           vibrations may cause significant error
 Vibrational temperatures:     94.35   163.05   328.99   421.65   463.09
          (Kelvin)            534.72   567.63   604.85   631.39   739.25
                              784.82   941.91   943.97  1040.99  1149.97
                             1208.20  1216.24  1266.93  1289.45  1452.38
                             1461.75  1488.13  1540.19  1647.07  1662.35
                             1753.44  1938.54  1944.35  1977.37  2025.23
                             2159.05  2244.50  2288.57  2386.29  2400.31
                             2411.71  4607.81  4608.61  4671.70  4671.97
                             5197.90  5352.38

 Zero-point correction=                           0.120787 (Hartree/Particle)
 Thermal correction to Energy=                    0.129027
 Thermal correction to Enthalpy=                  0.129971
 Thermal correction to Gibbs Free Energy=         0.087418
 Sum of electronic and zero-point Energies=           -491.975016
 Sum of electronic and thermal Energies=              -491.966776
 Sum of electronic and thermal Enthalpies=            -491.965832
 Sum of electronic and thermal Free Energies=         -492.008384

                     E (Thermal)             CV                S
                      KCal/Mol        Cal/Mol-Kelvin    Cal/Mol-Kelvin
 Total                   80.966             31.479             89.560
 Electronic               0.000              0.000              0.000
 Translational            0.889              2.981             40.679
 Rotational               0.889              2.981             29.332
 Vibrational             79.188             25.517             19.550
 Vibration     1          0.597              1.971              4.282
 Vibration     2          0.607              1.938              3.211
 Vibration     3          0.651              1.797              1.889
 Vibration     4          0.688              1.687              1.456
 Vibration     5          0.707              1.632              1.301
 Vibration     6          0.743              1.530              1.073
 Vibration     7          0.761              1.482              0.983
 Vibration     8          0.783              1.426              0.891
 Vibration     9          0.799              1.386              0.830
 Vibration    10          0.869              1.219              0.624
 Vibration    11          0.901              1.150              0.554

 Optimization completed.
    -- Stationary point found.
 Normal termination of Gaussian 09 at Mon Dec 24 12:30:06 2018.
