 Gaussian 09, Revision A.02,
 Gaussian 09:  EM64L-G09RevA.02 11-Jun-2009

 ----------------------------------------------------------------------
 # opt=tight freq cam-b3lyp/gen geom=connectivity scf=qc int=ultrafine
 scrf=(cpcm,solvent=water)
 ----------------------------------------------------------------------

 --------------------------------------------
 NA CAM-B3LYP def2-TZVPD - solvent CPCM water
 --------------------------------------------
 Symbolic Z-matrix:
 Charge =  0 Multiplicity = 1

 SCF Done:  E(RCAM-B3LYP) =  -492.091814873     a.u. after    8 cycles
 SCF Done:  E(RCAM-B3LYP) =  -492.097979418     a.u. after    5 cycles
 SCF Done:  E(RCAM-B3LYP) =  -492.101915114     a.u. after   18 cycles
 SCF Done:  E(RCAM-B3LYP) =  -492.098715523     a.u. after    6 cycles
 SCF Done:  E(RCAM-B3LYP) =  -492.101971792     a.u. after    5 cycles
 SCF Done:  E(RCAM-B3LYP) =  -492.102108760     a.u. after    4 cycles
 SCF Done:  E(RCAM-B3LYP) =  -492.102158660     a.u. after    3 cycles
 SCF Done:  E(RCAM-B3LYP) =  -492.102182154     a.u. after   18 cycles
 SCF Done:  E(RCAM-B3LYP) =  -492.102196596     a.u. after    3 cycles
 SCF Done:  E(RCAM-B3LYP) =  -492.102209523     a.u. after    3 cycles
 SCF Done:  E(RCAM-B3LYP) =  -492.102212216     a.u. after   17 cycles
 SCF Done:  E(RCAM-B3LYP) =  -492.102212345     a.u. after    2 cycles
 SCF Done:  E(RCAM-B3LYP) =  -492.102212351     a.u. after    2 cycles
 SCF Done:  E(RCAM-B3LYP) =  -492.102212362     a.u. after   18 cycles
 SCF Done:  E(RCAM-B3LYP) =  -492.102212362     a.u. after   18 cycles
 SCF Done:  E(RCAM-B3LYP) =  -492.102212362     a.u. after   18 cycles
 Optimization completed.
    -- Stationary point found.
 Normal termination of Gaussian 09 at Thu Nov 24 18:39:20 2022.

 ----------------------------------------------------------------------
 #N Geom=AllCheck Guess=TCheck SCRF=Check GenChk RCAM-B3LYP/ChkBas Freq
 ----------------------------------------------------------------------

 NA CAM-B3LYP def2-TZVPD - solvent CPCM water
 --------------------------------------------
 Redundant internal coordinates taken from checkpoint file:
 /home/matheusmaximo/Gaussian/S0solvent/Water/1.chk
 Charge =  0 Multiplicity = 1

                         Standard orientation:
 ---------------------------------------------------------------------
 Center     Atomic      Atomic             Coordinates (Angstroms)
 Number     Number       Type             X           Y           Z
 ---------------------------------------------------------------------
      1          6           0       -0.018341   -1.208383   -0.002031
      2          6           0       -0.705755    0.000000   -0.001372
      3          6           0       -0.018341    1.208383   -0.002035
      4          6           0        1.352589    1.209332   -0.003047
      5          6           0        2.069650    0.000000   -0.002722
      6          6           0        1.352589   -1.209332   -0.003042
      7          1           0       -0.567943   -2.137134   -0.000716
      8          1           0       -0.567942    2.137134   -0.000724
      9          1           0        1.891918    2.147100   -0.004205
     10          1           0        1.891917   -2.147100   -0.004195
     11          7           0       -2.142342    0.000000    0.001591
     12          8           0       -2.729071    1.072603    0.002859
     13          8           0       -2.729070   -1.072604    0.002847
     14          7           0        3.422333    0.000000   -0.024941
     15          1           0        3.931446    0.856077    0.106574
     16          1           0        3.931445   -0.856078    0.106572
 ---------------------------------------------------------------------

 SCF Done:  E(RCAM-B3LYP) =  -492.102212352     a.u. after    1 cycles

 The electronic state is 1-A.
 Alpha  occ. eigenvalues --  -19.23499 -19.23498 -14.63665 -14.41283 -10.31889
 Alpha  occ. eigenvalues --  -10.29763 -10.27408 -10.27406 -10.25881 -10.25880
 Alpha  occ. eigenvalues --   -1.32464  -1.14229  -1.03151  -0.96638  -0.87972
 Alpha  occ. eigenvalues --   -0.85534  -0.77184  -0.71784  -0.67685  -0.64410
 Alpha  occ. eigenvalues --   -0.62245  -0.61601  -0.61106  -0.58923  -0.52918
 Alpha  occ. eigenvalues --   -0.52283  -0.51151  -0.48918  -0.48383  -0.42734
 Alpha  occ. eigenvalues --   -0.40786  -0.39412  -0.38860  -0.37143  -0.33693
 Alpha  occ. eigenvalues --   -0.28156
 Alpha virt. eigenvalues --   -0.05022   0.01674   0.03155   0.04443   0.05199
 Alpha virt. eigenvalues --    0.05523   0.06720   0.07190   0.07276   0.09112
 Alpha virt. eigenvalues --    0.10511   0.10761   0.11418   0.12493   0.14513

 Mulliken atomic charges:
              1
     1  C   -0.405612
     2  C   -0.081483
     3  C   -0.405612
     4  C   -0.598411
     5  C    0.874944
     6  C   -0.598410
     7  H    0.441779
     8  H    0.441779
     9  H    0.342048
    10  H    0.342047
    11  N    0.912474
    12  O   -0.634069
    13  O   -0.634069
    14  N   -0.440669
    15  H    0.221633
    16  H    0.221633
 Sum of Mulliken atomic charges =   0.00000

 Dipole moment (field-independent basis, Debye):
    X=             10.1785    Y=              0.0000    Z=              0.4637  Tot=             10.1891
 Quadrupole moment (field-independent basis, Debye-Ang):
   XX=            -56.5629   YY=            -52.6676   ZZ=            -60.3194
   XY=              0.0000   XZ=              1.9544   YZ=              0.0000

  Exact polarizability: 236.802   0.000 140.028  -0.966   0.000  73.963
 Approx polarizability: 188.384   0.000 138.578  -0.789   0.000  72.116

                     1                      2                      3
                     A                      A                      A
 Frequencies --    63.7762               111.3909               200.3957
 Red. masses --     7.6315                 5.8241                 1.2202
 Frc consts  --     0.0183                 0.0426                 0.0289
 IR Inten    --     0.0345                 0.0892               494.6530

                     4                      5                      6
                     A                      A                      A
 Frequencies --   228.0748               289.7208               371.4229
 Red. masses --     6.4703                 5.8103                 9.1593
 Frc consts  --     0.1983                 0.2873                 0.7445
 IR Inten    --     0.3830                 2.7098                 1.1877

                     7                      8                      9
                     A                      A                      A
 Frequencies --   394.1731               428.8910               470.3877
 Red. masses --     2.8909                 2.3817                 1.1421
 Frc consts  --     0.2646                 0.2581                 0.1489
 IR Inten    --     1.9236                 0.7247                 4.1172

                    10                     11                     12
                     A                      A                      A
 Frequencies --   510.0346               546.1167               654.1996
 Red. masses --     2.5344                 6.8251                 6.8822
 Frc consts  --     0.3884                 1.1993                 1.7354
 IR Inten    --    25.7161                 6.3967                 2.7542

                    13                     14                     15
                     A                      A                      A
 Frequencies --   654.8308               726.1122               800.7623
 Red. masses --     6.8053                 3.1229                 6.0432
 Frc consts  --     1.7193                 0.9701                 2.2831
 IR Inten    --    46.2683                16.5090                46.3614

                    16                     17                     18
                     A                      A                      A
 Frequencies --   836.6939               845.8691               879.4578
 Red. masses --     1.2615                 5.5967                 2.0661
 Frc consts  --     0.5203                 2.3593                 0.9415
 IR Inten    --     0.0650                 0.5067                60.1030

                    19                     20                     21
                     A                      A                      A
 Frequencies --   893.5297              1010.9694              1016.5009
 Red. masses --     8.9659                 1.3719                 1.3457
 Frc consts  --     4.2176                 0.8262                 0.8193
 IR Inten    --    27.4255                 0.4704                 0.0001

                    22                     23                     24
                     A                      A                      A
 Frequencies --  1029.5336              1061.0735              1136.9468
 Red. masses --     2.6854                 1.4155                 2.0767
 Frc consts  --     1.6770                 0.9390                 1.5817
 IR Inten    --     6.4788                 1.1415               765.6563

                    25                     26                     27
                     A                      A                      A
 Frequencies --  1157.2382              1220.5923              1346.7808
 Red. masses --     1.1558                 1.6238                 1.3784
 Frc consts  --     0.9120                 1.4253                 1.4730
 IR Inten    --    23.3640                21.5039                 1.6216

                    28                     29                     30
                     A                      A                      A
 Frequencies --  1346.8647              1381.2933              1389.0965
 Red. masses --     4.4809                 6.3283                 4.4654
 Frc consts  --     4.7892                 7.1139                 5.0766
 IR Inten    --  1913.5517                 7.8684               448.1887

                    31                     32                     33
                     A                      A                      A
 Frequencies --  1501.4447              1556.5350              1558.2911
 Red. masses --     3.8488                 9.8552                 2.6643
 Frc consts  --     5.1120                14.0680                 3.8118
 IR Inten    --    74.7219               502.0430                93.1429

                    34                     35                     36
                     A                      A                      A
 Frequencies --  1654.0698              1655.5277              1667.3488
 Red. masses --     7.3544                 1.2419                 5.3842
 Frc consts  --    11.8551                 2.0055                 8.8191
 IR Inten    --   120.7091               104.2527               711.8041

                    37                     38                     39
                     A                      A                      A
 Frequencies --  3207.4501              3207.9037              3247.2006
 Red. masses --     1.0910                 1.0911                 1.0931
 Frc consts  --     6.6132                 6.6155                 6.7910
 IR Inten    --     5.0164                13.2191                 0.3683

                    40                     41                     42
                     A                      A                      A
 Frequencies --  3247.4576              3613.5319              3725.2207
 Red. masses --     1.0939                 1.0458                 1.1049
 Frc consts  --     6.7969                 8.0458                 9.0341
 IR Inten    --     4.8733               250.2895                82.4440

 - Thermochemistry -
 -------------------
 Temperature   298.150 Kelvin.  Pressure   1.00000 Atm.
 Atom     1 has atomic number  6 and mass  12.00000

 Molecular mass:   138.04293 amu.
 Principal axes and moments of inertia in atomic units:
                           1         2         3
     Eigenvalues --   453.361982164.406152617.54720
           X            1.00000   0.00000   0.00137
           Y            0.00000   1.00000   0.00000
           Z           -0.00137   0.00000   1.00000
 This molecule is an asymmetric top.
 Rotational symmetry number  1.
 Warning -- assumption of classical behavior for rotation
           may cause significant error
 Rotational temperatures (Kelvin)      0.19105     0.04002     0.03309
 Rotational constants (GHZ):           3.98080     0.83383     0.68948
 Zero-point vibrational energy     316081.6 (Joules/Mol)
                                   75.54531 (Kcal/Mol)
 Warning -- explicit consideration of  11 degrees of freedom as
           vibrations may cause significant error
 Vibrational temperatures:     91.76   160.27   288.32   328.15   416.84
          (Kelvin)            534.39   567.13   617.08   676.78   733.83
                              785.74   941.25   942.15  1044.71  1152.12
                             1203.81  1217.02  1265.34  1285.59  1454.56
                             1462.52  1481.27  1526.65  1635.81  1665.01
                             1756.16  1937.71  1937.84  1987.37  1998.60
                             2160.24  2239.50  2242.03  2379.83  2381.93
                             2398.94  4614.80  4615.45  4671.99  4672.36
                             5199.06  5359.75

 Zero-point correction=                           0.120389 (Hartree/Particle)
 Thermal correction to Energy=                    0.128781
 Thermal correction to Enthalpy=                  0.129725
 Thermal correction to Gibbs Free Energy=         0.086774
 Sum of electronic and zero-point Energies=           -491.981823
 Sum of electronic and thermal Energies=              -491.973432
 Sum of electronic and thermal Enthalpies=            -491.972487
 Sum of electronic and thermal Free Energies=         -492.015439

                     E (Thermal)             CV                S
                      KCal/Mol        Cal/Mol-Kelvin    Cal/Mol-Kelvin
 Total                   80.811             31.654             90.399
 Electronic               0.000              0.000              0.000
 Translational            0.889              2.981             40.679
 Rotational               0.889              2.981             29.331
 Vibrational             79.034             25.692             20.389
 Vibration     1          0.597              1.972              4.337
 Vibration     2          0.607              1.940              3.245
 Vibration     3          0.638              1.839              2.129
 Vibration     4          0.651              1.798              1.894
 Vibration     5          0.686              1.693              1.476
 Vibration     6          0.743              1.531              1.074
 Vibration     7          0.761              1.483              0.984
 Vibration     8          0.790              1.407              0.862
 Vibration     9          0.827              1.316              0.736
 Vibration    10          0.865              1.228              0.634
 Vibration    11          0.901              1.148              0.552

 Optimization completed.
    -- Stationary point found.
 Normal termination of Gaussian 09 at Thu Nov 24 22:09:06 2022.
